6331
  -OEChem-11142515482D

  4  3  0     0  0  0  0  0  0999 V2000
    2.5369    0.1550    0.0000 B   0  0  0  0  0  0  0  0  0  0  0  0
    3.0739    0.4650    0.0000 H   0  0  0  0  0  0  0  0  0  0  0  0
    2.0000    0.4650    0.0000 H   0  0  0  0  0  0  0  0  0  0  0  0
    2.5369   -0.4650    0.0000 H   0  0  0  0  0  0  0  0  0  0  0  0
  1  2  1  0  0  0  0
  1  3  1  0  0  0  0
  1  4  1  0  0  0  0
M  END
> <PUBCHEM_COMPOUND_CID>
6331

> <PUBCHEM_COMPOUND_CANONICALIZED>
1

> <PUBCHEM_CACTVS_COMPLEXITY>
0

> <PUBCHEM_CACTVS_HBOND_ACCEPTOR>
0

> <PUBCHEM_CACTVS_HBOND_DONOR>
0

> <PUBCHEM_CACTVS_ROTATABLE_BOND>
0

> <PUBCHEM_CACTVS_SUBSKEYS>
AAADcQIAAAAAAAAAAAAAAAAAAAAAAAAAAAAAAAAAAAAAAAAAAACAAAAAAAAAAAAAAAAAAAAAAAAAAAAAAAAAAAAAAAAAAAAAAAAAAAAAAAAAAAAAAAAAAAAAAAAAAAAAAAAAAAAAAAAAAAAAAAAAAAAAAA==

> <PUBCHEM_IUPAC_OPENEYE_NAME>
borane

> <PUBCHEM_IUPAC_CAS_NAME>
borane

> <PUBCHEM_IUPAC_NAME_MARKUP>
borane

> <PUBCHEM_IUPAC_NAME>
borane

> <PUBCHEM_IUPAC_SYSTEMATIC_NAME>
borane

> <PUBCHEM_IUPAC_TRADITIONAL_NAME>
borane

> <PUBCHEM_IUPAC_INCHI>
InChI=1S/BH3/h1H3

> <PUBCHEM_IUPAC_INCHIKEY>
UORVGPXVDQYIDP-UHFFFAOYSA-N

> <PUBCHEM_EXACT_MASS>
14.0327803

> <PUBCHEM_MOLECULAR_FORMULA>
BH3

> <PUBCHEM_MOLECULAR_WEIGHT>
13.84

> <PUBCHEM_SMILES>
B

> <PUBCHEM_CONNECTIVITY_SMILES>
B

> <PUBCHEM_CACTVS_TPSA>
0

> <PUBCHEM_MONOISOTOPIC_WEIGHT>
14.0327803

> <PUBCHEM_TOTAL_CHARGE>
0

> <PUBCHEM_HEAVY_ATOM_COUNT>
1

> <PUBCHEM_ATOM_DEF_STEREO_COUNT>
0

> <PUBCHEM_ATOM_UDEF_STEREO_COUNT>
0

> <PUBCHEM_BOND_DEF_STEREO_COUNT>
0

> <PUBCHEM_BOND_UDEF_STEREO_COUNT>
0

> <PUBCHEM_ISOTOPIC_ATOM_COUNT>
0

> <PUBCHEM_COMPONENT_COUNT>
1

> <PUBCHEM_CACTVS_TAUTO_COUNT>
-1

> <PUBCHEM_COORDINATE_TYPE>
1
5
255

$$$$
